# vtk DataFile Version 3.0
3D Oxygen Concentration Field from MicroC H5 Data
ASCII
DATASET STRUCTURED_GRID
DIMENSIONS 41 41 41
POINTS 68921 float
-1.000000e-03 -1.000000e-03 -1.000000e-03
-9.500000e-04 -1.000000e-03 -1.000000e-03
-9.000000e-04 -1.000000e-03 -1.000000e-03
-8.500000e-04 -1.000000e-03 -1.000000e-03
-8.000000e-04 -1.000000e-03 -1.000000e-03
-7.500000e-04 -1.000000e-03 -1.000000e-03
-7.000000e-04 -1.000000e-03 -1.000000e-03
-6.500000e-04 -1.000000e-03 -1.000000e-03
-6.000000e-04 -1.000000e-03 -1.000000e-03
-5.500000e-04 -1.000000e-03 -1.000000e-03
-5.000000e-04 -1.000000e-03 -1.000000e-03
-4.500000e-04 -1.000000e-03 -1.000000e-03
-4.000000e-04 -1.000000e-03 -1.000000e-03
-3.500000e-04 -1.000000e-03 -1.000000e-03
-3.000000e-04 -1.000000e-03 -1.000000e-03
-2.500000e-04 -1.000000e-03 -1.000000e-03
-2.000000e-04 -1.000000e-03 -1.000000e-03
-1.500000e-04 -1.000000e-03 -1.000000e-03
-1.000000e-04 -1.000000e-03 -1.000000e-03
-5.000000e-05 -1.000000e-03 -1.000000e-03
0.000000e+00 -1.000000e-03 -1.000000e-03
5.000000e-05 -1.000000e-03 -1.000000e-03
1.000000e-04 -1.000000e-03 -1.000000e-03
1.500000e-04 -1.000000e-03 -1.000000e-03
2.000000e-04 -1.000000e-03 -1.000000e-03
2.500000e-04 -1.000000e-03 -1.000000e-03
3.000000e-04 -1.000000e-03 -1.000000e-03
3.500000e-04 -1.000000e-03 -1.000000e-03
4.000000e-04 -1.000000e-03 -1.000000e-03
4.500000e-04 -1.000000e-03 -1.000000e-03
5.000000e-04 -1.000000e-03 -1.000000e-03
5.500000e-04 -1.000000e-03 -1.000000e-03
6.000000e-04 -1.000000e-03 -1.000000e-03
6.500000e-04 -1.000000e-03 -1.000000e-03
7.000000e-04 -1.000000e-03 -1.000000e-03
7.500000e-04 -1.000000e-03 -1.000000e-03
8.000000e-04 -1.000000e-03 -1.000000e-03
8.500000e-04 -1.000000e-03 -1.000000e-03
9.000000e-04 -1.000000e-03 -1.000000e-03
9.500000e-04 -1.000000e-03 -1.000000e-03
1.000000e-03 -1.000000e-03 -1.000000e-03
-1.000000e-03 -9.500000e-04 -1.000000e-03
-9.500000e-04 -9.500000e-04 -1.000000e-03
-9.000000e-04 -9.500000e-04 -1.000000e-03
-8.500000e-04 -9.500000e-04 -1.000000e-03
-8.000000e-04 -9.500000e-04 -1.000000e-03
-7.500000e-04 -9.500000e-04 -1.000000e-03
-7.000000e-04 -9.500000e-04 -1.000000e-03
-6.500000e-04 -9.500000e-04 -1.000000e-03
-6.000000e-04 -9.500000e-04 -1.000000e-03
-5.500000e-04 -9.500000e-04 -1.000000e-03
-5.000000e-04 -9.500000e-04 -1.000000e-03
-4.500000e-04 -9.500000e-04 -1.000000e-03
-4.000000e-04 -9.500000e-04 -1.000000e-03
-3.500000e-04 -9.500000e-04 -1.000000e-03
-3.000000e-04 -9.500000e-04 -1.000000e-03
-2.500000e-04 -9.500000e-04 -1.000000e-03
-2.000000e-04 -9.500000e-04 -1.000000e-03
-1.500000e-04 -9.500000e-04 -1.000000e-03
-1.000000e-04 -9.500000e-04 -1.000000e-03
-5.000000e-05 -9.500000e-04 -1.000000e-03
0.000000e+00 -9.500000e-04 -1.000000e-03
5.000000e-05 -9.500000e-04 -1.000000e-03
1.000000e-04 -9.500000e-04 -1.000000e-03
1.500000e-04 -9.500000e-04 -1.000000e-03
2.000000e-04 -9.500000e-04 -1.000000e-03
2.500000e-04 -9.500000e-04 -1.000000e-03
3.000000e-04 -9.500000e-04 -1.000000e-03
3.500000e-04 -9.500000e-04 -1.000000e-03
4.000000e-04 -9.500000e-04 -1.000000e-03
4.500000e-04 -9.500000e-04 -1.000000e-03
5.000000e-04 -9.500000e-04 -1.000000e-03
5.500000e-04 -9.500000e-04 -1.000000e-03
6.000000e-04 -9.500000e-04 -1.000000e-03
6.500000e-04 -9.500000e-04 -1.000000e-03
7.000000e-04 -9.500000e-04 -1.000000e-03
7.500000e-04 -9.500000e-04 -1.000000e-03
8.000000e-04 -9.500000e-04 -1.000000e-03
8.500000e-04 -9.500000e-04 -1.000000e-03
9.000000e-04 -9.500000e-04 -1.000000e-03
9.500000e-04 -9.500000e-04 -1.000000e-03
1.000000e-03 -9.500000e-04 -1.000000e-03
-1.000000e-03 -9.000000e-04 -1.000000e-03
-9.500000e-04 -9.000000e-04 -1.000000e-03
-9.000000e-04 -9.000000e-04 -1.000000e-03
-8.500000e-04 -9.000000e-04 -1.000000e-03
-8.000000e-04 -9.000000e-04 -1.000000e-03
-7.500000e-04 -9.000000e-04 -1.000000e-03
-7.000000e-04 -9.000000e-04 -1.000000e-03
-6.500000e-04 -9.000000e-04 -1.000000e-03
-6.000000e-04 -9.000000e-04 -1.000000e-03
-5.500000e-04 -9.000000e-04 -1.000000e-03
-5.000000e-04 -9.000000e-04 -1.000000e-03
-4.500000e-04 -9.000000e-04 -1.000000e-03
-4.000000e-04 -9.000000e-04 -1.000000e-03
-3.500000e-04 -9.000000e-04 -1.000000e-03
-3.000000e-04 -9.000000e-04 -1.000000e-03
-2.500000e-04 -9.000000e-04 -1.000000e-03
-2.000000e-04 -9.000000e-04 -1.000000e-03
-1.500000e-04 -9.000000e-04 -1.000000e-03
-1.000000e-04 -9.000000e-04 -1.000000e-03
-5.000000e-05 -9.000000e-04 -1.000000e-03
0.000000e+00 -9.000000e-04 -1.000000e-03
5.000000e-05 -9.000000e-04 -1.000000e-03
1.000000e-04 -9.000000e-04 -1.000000e-03
1.500000e-04 -9.000000e-04 -1.000000e-03
2.000000e-04 -9.000000e-04 -1.000000e-03
2.500000e-04 -9.000000e-04 -1.000000e-03
3.000000e-04 -9.000000e-04 -1.000000e-03
3.500000e-04 -9.000000e-04 -1.000000e-03
4.000000e-04 -9.000000e-04 -1.000000e-03
4.500000e-04 -9.000000e-04 -1.000000e-03
5.000000e-04 -9.000000e-04 -1.000000e-03
5.500000e-04 -9.000000e-04 -1.000000e-03
6.000000e-04 -9.000000e-04 -1.000000e-03
6.500000e-04 -9.000000e-04 -1.000000e-03
7.000000e-04 -9.000000e-04 -1.000000e-03
7.500000e-04 -9.000000e-04 -1.000000e-03
8.000000e-04 -9.000000e-04 -1.000000e-03
8.500000e-04 -9.000000e-04 -1.000000e-03
9.000000e-04 -9.000000e-04 -1.000000e-03
9.500000e-04 -9.000000e-04 -1.000000e-03
1.000000e-03 -9.000000e-04 -1.000000e-03
-1.000000e-03 -8.500000e-04 -1.000000e-03
-9.500000e-04 -8.500000e-04 -1.000000e-03
-9.000000e-04 -8.500000e-04 -1.000000e-03
-8.500000e-04 -8.500000e-04 -1.000000e-03
-8.000000e-04 -8.500000e-04 -1.000000e-03
-7.500000e-04 -8.500000e-04 -1.000000e-03
-7.000000e-04 -8.500000e-04 -1.000000e-03
-6.500000e-04 -8.500000e-04 -1.000000e-03
-6.000000e-04 -8.500000e-04 -1.000000e-03
-5.500000e-04 -8.500000e-04 -1.000000e-03
-5.000000e-04 -8.500000e-04 -1.000000e-03
-4.500000e-04 -8.500000e-04 -1.000000e-03
-4.000000e-04 -8.500000e-04 -1.000000e-03
-3.500000e-04 -8.500000e-04 -1.000000e-03
-3.000000e-04 -8.500000e-04 -1.000000e-03
-2.500000e-04 -8.500000e-04 -1.000000e-03
-2.000000e-04 -8.500000e-04 -1.000000e-03
-1.500000e-04 -8.500000e-04 -1.000000e-03
-1.000000e-04 -8.500000e-04 -1.000000e-03
-5.000000e-05 -8.500000e-04 -1.000000e-03
0.000000e+00 -8.500000e-04 -1.000000e-03
5.000000e-05 -8.500000e-04 -1.000000e-03
1.000000e-04 -8.500000e-04 -1.000000e-03
1.500000e-04 -8.500000e-04 -1.000000e-03
2.000000e-04 -8.500000e-04 -1.000000e-03
2.500000e-04 -8.500000e-04 -1.000000e-03
3.000000e-04 -8.500000e-04 -1.000000e-03
3.500000e-04 -8.500000e-04 -1.000000e-03
4.000000e-04 -8.500000e-04 -1.000000e-03
4.500000e-04 -8.500000e-04 -1.000000e-03
5.000000e-04 -8.500000e-04 -1.000000e-03
5.500000e-04 -8.500000e-04 -1.000000e-03
6.000000e-04 -8.500000e-04 -1.000000e-03
6.500000e-04 -8.500000e-04 -1.000000e-03
7.000000e-04 -8.500000e-04 -1.000000e-03
7.500000e-04 -8.500000e-04 -1.000000e-03
8.000000e-04 -8.500000e-04 -1.000000e-03
8.500000e-04 -8.500000e-04 -1.000000e-03
9.000000e-04 -8.500000e-04 -1.000000e-03
9.500000e-04 -8.500000e-04 -1.000000e-03
1.000000e-03 -8.500000e-04 -1.000000e-03
-1.000000e-03 -8.000000e-04 -1.000000e-03
-9.500000e-04 -8.000000e-04 -1.000000e-03
-9.000000e-04 -8.000000e-04 -1.000000e-03
-8.500000e-04 -8.000000e-04 -1.000000e-03
-8.000000e-04 -8.000000e-04 -1.000000e-03
-7.500000e-04 -8.000000e-04 -1.000000e-03
-7.000000e-04 -8.000000e-04 -1.000000e-03
-6.500000e-04 -8.000000e-04 -1.000000e-03
-6.000000e-04 -8.000000e-04 -1.000000e-03
-5.500000e-04 -8.000000e-04 -1.000000e-03
-5.000000e-04 -8.000000e-04 -1.000000e-03
-4.500000e-04 -8.000000e-04 -1.000000e-03
-4.000000e-04 -8.000000e-04 -1.000000e-03
-3.500000e-04 -8.000000e-04 -1.000000e-03
-3.000000e-04 -8.000000e-04 -1.000000e-03
-2.500000e-04 -8.000000e-04 -1.000000e-03
-2.000000e-04 -8.000000e-04 -1.000000e-03
-1.500000e-04 -8.000000e-04 -1.000000e-03
-1.000000e-04 -8.000000e-04 -1.000000e-03
-5.000000e-05 -8.000000e-04 -1.000000e-03
0.000000e+00 -8.000000e-04 -1.000000e-03
5.000000e-05 -8.000000e-04 -1.000000e-03
1.000000e-04 -8.000000e-04 -1.000000e-03
1.500000e-04 -8.000000e-04 -1.000000e-03
2.000000e-04 -8.000000e-04 -1.000000e-03
2.500000e-04 -8.000000e-04 -1.000000e-03
3.000000e-04 -8.000000e-04 -1.000000e-03
3.500000e-04 -8.000000e-04 -1.000000e-03
4.000000e-04 -8.000000e-04 -1.000000e-03
4.500000e-04 -8.000000e-04 -1.000000e-03
5.000000e-04 -8.000000e-04 -1.000000e-03
5.500000e-04 -8.000000e-04 -1.000000e-03
6.000000e-04 -8.000000e-04 -1.000000e-03
6.500000e-04 -8.000000e-04 -1.000000e-03
7.000000e-04 -8.000000e-04 -1.000000e-03
7.500000e-04 -8.000000e-04 -1.000000e-03
8.000000e-04 -8.000000e-04 -1.000000e-03
8.500000e-04 -8.000000e-04 -1.000000e-03
9.000000e-04 -8.000000e-04 -1.000000e-03
9.500000e-04 -8.000000e-04 -1.000000e-03
1.000000e-03 -8.000000e-04 -1.000000e-03
-1.000000e-03 -7.500000e-04 -1.000000e-03
-9.500000e-04 -7.500000e-04 -1.000000e-03
-9.000000e-04 -7.500000e-04 -1.000000e-03
-8.500000e-04 -7.500000e-04 -1.000000e-03
-8.000000e-04 -7.500000e-04 -1.000000e-03
-7.500000e-04 -7.500000e-04 -1.000000e-03
-7.000000e-04 -7.500000e-04 -1.000000e-03
-6.500000e-04 -7.500000e-04 -1.000000e-03
-6.000000e-04 -7.500000e-04 -1.000000e-03
-5.500000e-04 -7.500000e-04 -1.000000e-03
-5.000000e-04 -7.500000e-04 -1.000000e-03
-4.500000e-04 -7.500000e-04 -1.000000e-03
-4.000000e-04 -7.500000e-04 -1.000000e-03
-3.500000e-04 -7.500000e-04 -1.000000e-03
-3.000000e-04 -7.500000e-04 -1.000000e-03
-2.500000e-04 -7.500000e-04 -1.000000e-03
-2.000000e-04 -7.500000e-04 -1.000000e-03
-1.500000e-04 -7.500000e-04 -1.000000e-03
-1.000000e-04 -7.500000e-04 -1.000000e-03
-5.000000e-05 -7.500000e-04 -1.000000e-03
0.000000e+00 -7.500000e-04 -1.000000e-03
5.000000e-05 -7.500000e-04 -1.000000e-03
1.000000e-04 -7.500000e-04 -1.000000e-03
1.500000e-04 -7.500000e-04 -1.000000e-03
2.000000e-04 -7.500000e-04 -1.000000e-03
2.500000e-04 -7.500000e-04 -1.000000e-03
3.000000e-04 -7.500000e-04 -1.000000e-03
3.500000e-04 -7.500000e-04 -1.000000e-03
4.000000e-04 -7.500000e-04 -1.000000e-03
4.500000e-04 -7.500000e-04 -1.000000e-03
5.000000e-04 -7.500000e-04 -1.000000e-03
5.500000e-04 -7.500000e-04 -1.000000e-03
[...]
CELL_DATA 64000
SCALARS Oxygen_Concentration_mM float 1
LOOKUP_TABLE default
2.100000e-01
2.099999e-01
2.099998e-01
2.099998e-01
2.099997e-01
2.099996e-01
2.099996e-01
2.099995e-01
2.099994e-01
2.099994e-01
2.099993e-01
2.099992e-01
2.099992e-01
2.099991e-01
2.099991e-01
2.099990e-01
2.099990e-01
2.099990e-01
2.099990e-01
2.099990e-01
2.099990e-01
2.099990e-01
2.099990e-01
2.099990e-01
2.099990e-01
2.099991e-01
2.099991e-01
2.099992e-01
2.099992e-01
2.099993e-01
2.099994e-01
2.099994e-01
2.099995e-01
2.099996e-01
2.099996e-01
2.099997e-01
2.099998e-01
2.099998e-01
2.099999e-01
2.100000e-01
2.099999e-01
2.099997e-01
2.099995e-01
2.099993e-01
2.099991e-01
2.099989e-01
2.099987e-01
2.099985e-01
2.099983e-01
2.099981e-01
2.099979e-01
2.099977e-01
2.099976e-01
2.099974e-01
2.099973e-01
2.099971e-01
2.099970e-01
2.099970e-01
2.099969e-01
2.099969e-01
2.099969e-01
2.099969e-01
2.099970e-01
2.099970e-01
2.099971e-01
2.099973e-01
2.099974e-01
2.099975e-01
2.099977e-01
2.099979e-01
2.099981e-01
2.099983e-01
2.099985e-01
2.099987e-01
2.099989e-01
2.099991e-01
2.099993e-01
2.099995e-01
2.099997e-01
2.099999e-01
2.099998e-01
2.099995e-01
2.099992e-01
2.099988e-01
2.099985e-01
2.099982e-01
2.099978e-01
2.099975e-01
2.099972e-01
2.099968e-01
2.099965e-01
2.099962e-01
2.099959e-01
2.099957e-01
2.099954e-01
2.099952e-01
2.099950e-01
2.099949e-01
2.099948e-01
2.099948e-01
2.099948e-01
2.099948e-01
2.099949e-01
2.099950e-01
2.099952e-01
2.099954e-01
2.099956e-01
2.099959e-01
2.099962e-01
2.099965e-01
2.099968e-01
2.099971e-01
2.099975e-01
2.099978e-01
2.099981e-01
2.099985e-01
2.099988e-01
2.099992e-01
2.099995e-01
2.099998e-01
2.099998e-01
2.099993e-01
2.099988e-01
2.099984e-01
2.099979e-01
2.099974e-01
2.099969e-01
2.099965e-01
2.099960e-01
2.099956e-01
2.099951e-01
2.099947e-01
2.099943e-01
2.099939e-01
2.099936e-01
2.099933e-01
2.099930e-01
2.099928e-01
2.099927e-01
2.099926e-01
2.099926e-01
2.099927e-01
2.099928e-01
2.099930e-01
2.099933e-01
2.099935e-01
2.099939e-01
2.099942e-01
2.099946e-01
2.099951e-01
2.099955e-01
2.099960e-01
2.099964e-01
2.099969e-01
2.099974e-01
2.099979e-01
2.099983e-01
2.099988e-01
2.099993e-01
2.099998e-01
2.099997e-01
2.099991e-01
2.099985e-01
2.099979e-01
2.099973e-01
2.099967e-01
2.099961e-01
2.099955e-01
2.099949e-01
2.099943e-01
2.099937e-01
2.099931e-01
2.099926e-01
2.099921e-01
2.099917e-01
2.099913e-01
2.099910e-01
2.099907e-01
2.099906e-01
2.099905e-01
2.099905e-01
2.099906e-01
2.099907e-01
2.099910e-01
2.099913e-01
2.099917e-01
2.099921e-01
2.099926e-01
2.099931e-01
2.099936e-01
2.099942e-01
2.099948e-01
2.099954e-01
2.099960e-01
2.099966e-01
2.099973e-01
2.099979e-01
2.099985e-01
2.099991e-01
2.099997e-01
2.099996e-01
2.099989e-01
2.099982e-01
2.099974e-01
2.099967e-01
2.099959e-01
2.099952e-01
2.099944e-01
2.099937e-01
2.099930e-01
2.099923e-01
2.099916e-01
2.099909e-01
2.099903e-01
2.099898e-01
2.099893e-01
2.099889e-01
2.099886e-01
2.099884e-01
2.099883e-01
2.099883e-01
2.099884e-01
2.099886e-01
2.099889e-01
2.099893e-01
2.099898e-01
2.099903e-01
2.099909e-01
2.099915e-01
2.099922e-01
2.099929e-01
2.099937e-01
2.099944e-01
2.099951e-01
2.099959e-01
2.099966e-01
2.099974e-01
2.099981e-01
2.099989e-01
2.099996e-01
2.099996e-01
2.099987e-01
2.099978e-01
2.099970e-01
2.099961e-01
2.099952e-01
2.099943e-01
2.099934e-01
2.099925e-01
2.099917e-01
2.099908e-01
2.099900e-01
2.099892e-01
2.099885e-01
2.099878e-01
2.099873e-01
2.099868e-01
2.099864e-01
2.099862e-01
2.099860e-01
2.099860e-01
2.099862e-01
2.099864e-01
2.099868e-01
2.099873e-01
2.099878e-01
2.099885e-01
2.099892e-01
2.099900e-01
2.099908e-01
2.099916e-01
2.099925e-01
2.099934e-01
2.099943e-01
2.099951e-01
2.099960e-01
2.099969e-01
2.099978e-01
2.099987e-01
2.099996e-01
2.099995e-01
2.099985e-01
2.099975e-01
2.099965e-01
2.099955e-01
2.099945e-01
2.099934e-01
2.099924e-01
2.099914e-01
2.099904e-01
2.099894e-01
2.099884e-01
2.099875e-01
2.099867e-01
2.099859e-01
2.099852e-01
2.099846e-01
2.099842e-01
2.099839e-01
2.099838e-01
2.099838e-01
2.099839e-01
2.099842e-01
2.099846e-01
2.099852e-01
2.099859e-01
2.099866e-01
2.099875e-01
2.099884e-01
2.099893e-01
2.099903e-01
2.099913e-01
2.099923e-01
2.099934e-01
2.099944e-01
2.099954e-01
2.099965e-01
2.099975e-01
2.099985e-01
2.099995e-01
2.099994e-01
2.099983e-01
2.099972e-01
2.099960e-01
2.099949e-01
2.099937e-01
2.099926e-01
2.099914e-01
2.099902e-01
2.099891e-01
2.099879e-01
2.099868e-01
2.099858e-01
2.099848e-01
2.099839e-01
2.099831e-01
2.099825e-01
2.099820e-01
2.099816e-01
2.099814e-01
2.099815e-01
2.099816e-01
2.099820e-01
2.099825e-01
2.099831e-01
2.099839e-01
2.099848e-01
2.099858e-01
2.099868e-01
2.099879e-01
2.099890e-01
2.099902e-01
2.099913e-01
2.099925e-01
2.099937e-01
2.099948e-01
2.099960e-01
2.099971e-01
2.099983e-01
2.099994e-01
2.099994e-01
2.099981e-01
2.099969e-01
2.099956e-01
2.099943e-01
2.099930e-01
2.099917e-01
2.099904e-01
2.099891e-01
2.099878e-01
2.099865e-01
2.099853e-01
2.099841e-01
2.099830e-01
2.099819e-01
2.099811e-01
2.099803e-01
2.099797e-01
2.099793e-01
2.099791e-01
2.099791e-01
2.099793e-01
2.099797e-01
2.099803e-01
2.099811e-01
2.099820e-01
2.099830e-01
2.099841e-01
2.099852e-01
2.099865e-01
2.099878e-01
2.099890e-01
2.099904e-01
2.099917e-01
2.099930e-01
2.099943e-01
2.099955e-01
2.099968e-01
2.099981e-01
2.099994e-01
2.099993e-01
2.099979e-01
2.099965e-01
2.099952e-01
2.099937e-01
2.099923e-01
2.099909e-01
2.099894e-01
2.099880e-01
2.099865e-01
2.099851e-01
2.099837e-01
2.099824e-01
2.099811e-01
2.099800e-01
2.099790e-01
2.099782e-01
2.099775e-01
2.099771e-01
2.099768e-01
2.099768e-01
2.099771e-01
2.099775e-01
2.099782e-01
2.099790e-01
2.099800e-01
2.099812e-01
2.099824e-01
2.099837e-01
2.099851e-01
2.099865e-01
2.099879e-01
2.099894e-01
2.099908e-01
2.099923e-01
2.099937e-01
2.099951e-01
2.099965e-01
2.099979e-01
2.099993e-01
2.099993e-01
2.099978e-01
2.099963e-01
2.099947e-01
2.099932e-01
2.099917e-01
2.099901e-01
2.099885e-01
2.099869e-01
2.099853e-01
2.099837e-01
2.099822e-01
2.099807e-01
2.099794e-01
2.099781e-01
2.099770e-01
2.099760e-01
2.099753e-01
2.099748e-01
2.099746e-01
2.099746e-01
2.099749e-01
2.099754e-01
2.099761e-01
2.099771e-01
2.099782e-01
2.099794e-01
2.099808e-01
2.099822e-01
2.099838e-01
2.099853e-01
2.099869e-01
2.099885e-01
2.099900e-01
2.099916e-01
2.099932e-01
2.099947e-01
2.099962e-01
2.099977e-01
2.099992e-01
2.099992e-01
2.099976e-01
2.099960e-01
2.099944e-01
2.099927e-01
2.099910e-01
2.099893e-01
2.099876e-01
2.099859e-01
2.099842e-01
2.099825e-01
2.099808e-01
2.099792e-01
2.099777e-01
2.099763e-01
2.099750e-01
2.099740e-01
2.099732e-01
2.099727e-01
2.099724e-01
2.099724e-01
2.099727e-01
2.099733e-01
2.099741e-01
2.099752e-01
2.099764e-01
2.099778e-01
2.099793e-01
2.099809e-01
2.099825e-01
2.099842e-01
2.099859e-01
2.099876e-01
2.099893e-01
2.099910e-01
2.099927e-01
2.099943e-01
2.099960e-01
2.099976e-01
2.099992e-01
2.099991e-01
2.099974e-01
2.099957e-01
2.099940e-01
2.099922e-01
2.099905e-01
2.099886e-01
2.099868e-01
2.099850e-01
2.099831e-01
2.099813e-01
2.099795e-01
2.099777e-01
2.099761e-01
2.099746e-01
2.099732e-01
2.099721e-01
2.099713e-01
2.099707e-01
2.099704e-01
2.099704e-01
2.099707e-01
2.099714e-01
2.099723e-01
2.099734e-01
2.099747e-01
2.099762e-01
2.099778e-01
2.099796e-01
2.099813e-01
2.099832e-01
2.099850e-01
2.099868e-01
2.099886e-01
2.099904e-01
2.099922e-01
2.099940e-01
2.099957e-01
2.099974e-01
2.099991e-01
2.099991e-01
2.099973e-01
2.099955e-01
2.099937e-01
2.099918e-01
2.099899e-01
2.099880e-01
2.099861e-01
2.099841e-01
2.099821e-01
2.099802e-01
2.099782e-01
2.099764e-01
2.099746e-01
2.099730e-01
2.099716e-01
2.099704e-01
2.099695e-01
2.099688e-01
2.099685e-01
2.099686e-01
2.099689e-01
2.099696e-01
2.099706e-01
2.099718e-01
2.099732e-01
2.099748e-01
2.099766e-01
2.099784e-01
2.099803e-01
2.099822e-01
2.099842e-01
2.099861e-01
2.099880e-01
2.099899e-01
2.099918e-01
2.099937e-01
2.099955e-01
2.099973e-01
2.099991e-01
2.099991e-01
2.099972e-01
2.099953e-01
2.099934e-01
2.099915e-01
2.099895e-01
2.099875e-01
2.099854e-01
2.099834e-01
2.099813e-01
2.099792e-01
2.099772e-01
2.099752e-01
2.099734e-01
2.099717e-01
2.099702e-01
2.099689e-01
2.099679e-01
2.099673e-01
2.099669e-01
2.099670e-01
2.099674e-01
2.099681e-01
2.099691e-01
2.099704e-01
2.099719e-01
2.099736e-01
2.099755e-01
2.099774e-01
2.099794e-01
2.099814e-01
2.099835e-01
2.099855e-01
2.099875e-01
2.099895e-01
2.099915e-01
2.099934e-01
2.099953e-01
2.099972e-01
2.099991e-01
2.099990e-01
2.099971e-01
2.099951e-01
2.099932e-01
2.099912e-01
2.099891e-01
2.099870e-01
2.099849e-01
2.099828e-01
2.099806e-01
2.099785e-01
2.099763e-01
2.099743e-01
2.099723e-01
2.099706e-01
2.099690e-01
2.099677e-01
2.099666e-01
2.099659e-01
2.099656e-01
2.099657e-01
2.099661e-01
2.099668e-01
2.099679e-01
2.099693e-01
2.099709e-01
2.099726e-01
2.099746e-01
2.099766e-01
2.099787e-01
2.099808e-01
2.099829e-01
2.099850e-01
2.099871e-01
2.099891e-01
2.099912e-01
2.099932e-01
2.099951e-01
2.099971e-01
2.099990e-01
2.099990e-01
2.099970e-01
2.099950e-01
2.099930e-01
2.099909e-01
2.099888e-01
2.099867e-01
2.099845e-01
2.099823e-01
2.099801e-01
2.099779e-01
2.099757e-01
2.099736e-01
2.099716e-01
2.099697e-01
2.099681e-01
2.099667e-01
2.099657e-01
2.099650e-01
2.099646e-01
2.099647e-01
2.099651e-01
2.099659e-01
2.099670e-01
2.099684e-01
2.099701e-01
2.099719e-01
2.099739e-01
2.099760e-01
2.099781e-01
2.099803e-01
2.099824e-01
2.099846e-01
2.099868e-01
2.099889e-01
2.099910e-01
2.099930e-01
2.099950e-01
2.099970e-01
2.099990e-01
2.099990e-01
2.099970e-01
2.099949e-01
2.099929e-01
2.099908e-01
2.099887e-01
2.099865e-01
2.099843e-01
2.099820e-01
2.099797e-01
2.099775e-01
2.099753e-01
2.099731e-01
2.099711e-01
2.099692e-01
2.099675e-01
2.099661e-01
2.099651e-01
2.099644e-01
2.099640e-01
2.099641e-01
2.099645e-01
2.099653e-01
2.099665e-01
2.099679e-01
2.099696e-01
2.099714e-01
2.099734e-01
2.099756e-01
2.099777e-01
2.099800e-01
2.099822e-01
2.099844e-01
2.099866e-01
2.099887e-01
2.099908e-01
2.099929e-01
2.099950e-01
2.099970e-01
2.099990e-01
2.099990e-01
2.099970e-01
2.099949e-01
2.099928e-01
2.099907e-01
2.099886e-01
2.099864e-01
2.099841e-01
2.099819e-01
2.099796e-01
2.099773e-01
2.099751e-01
2.099729e-01
2.099708e-01
2.099690e-01
2.099673e-01
2.099659e-01
2.099648e-01
2.099641e-01
2.099638e-01
2.099639e-01
2.099643e-01
2.099651e-01
2.099663e-01
2.099677e-01
2.099694e-01
2.099713e-01
2.099733e-01
2.099754e-01
2.099776e-01
2.099798e-01
2.099821e-01
2.099843e-01
2.099865e-01
2.099886e-01
2.099908e-01
2.099929e-01
2.099949e-01
2.099970e-01
2.099990e-01
2.099990e-01
2.099970e-01
2.099949e-01
2.099929e-01
2.099907e-01
2.099886e-01
2.099864e-01
2.099842e-01
2.099819e-01
2.099796e-01
2.099774e-01
2.099751e-01
2.099730e-01
2.099709e-01
2.099691e-01
2.099674e-01
2.099660e-01
2.099650e-01
2.099643e-01
2.099640e-01
2.099640e-01
2.099645e-01
2.099653e-01
2.099664e-01
2.099678e-01
2.099695e-01
2.099714e-01
2.099734e-01
2.099755e-01
2.099777e-01
2.099799e-01
2.099821e-01
2.099843e-01
2.099865e-01
2.099887e-01
2.099908e-01
2.099929e-01
2.099949e-01
2.099970e-01
2.099990e-01
2.099990e-01
2.099970e-01
2.099950e-01
2.099929e-01
2.099908e-01
2.099887e-01
2.099866e-01
2.099844e-01
2.099821e-01
2.099799e-01
2.099776e-01
2.099755e-01
2.099733e-01
2.099713e-01
2.099695e-01
2.099679e-01
2.099665e-01
2.099655e-01
2.099648e-01
2.099645e-01
2.099646e-01
2.099650e-01
2.099658e-01
2.099669e-01
2.099683e-01
2.099699e-01
2.099717e-01
2.099737e-01
2.099758e-01
2.099779e-01
2.099801e-01
2.099823e-01
2.099845e-01
2.099866e-01
2.099888e-01
2.099909e-01
2.099929e-01
2.099950e-01
2.099970e-01
2.099990e-01
2.099990e-01
2.099971e-01
2.099951e-01
2.099931e-01
2.099910e-01
2.099889e-01
2.099868e-01
2.099847e-01
2.099825e-01
2.099803e-01
2.099781e-01
2.099760e-01
2.099739e-01
2.099720e-01
2.099702e-01
2.099687e-01
2.099674e-01
2.099664e-01
2.099657e-01
2.099654e-01
2.099655e-01
2.099659e-01
2.099666e-01
2.099677e-01
2.099690e-01
2.099706e-01
2.099724e-01
2.099743e-01
2.099763e-01
2.099784e-01
2.099805e-01
2.099827e-01
2.099848e-01
2.099869e-01
2.099890e-01
2.099910e-01
2.099931e-01
2.099951e-01
2.099971e-01
2.099990e-01
2.099990e-01
2.099971e-01
2.099952e-01
2.099933e-01
2.099913e-01
2.099893e-01
2.099872e-01
2.099851e-01
2.099830e-01
2.099809e-01
2.099788e-01
2.099768e-01
2.099748e-01
2.099729e-01
2.099712e-01
2.099697e-01
2.099685e-01
2.099675e-01
2.099669e-01
2.099666e-01
2.099667e-01
2.099671e-01
2.099678e-01
2.099688e-01
2.099701e-01
2.099716e-01
2.099733e-01
2.099751e-01
2.099771e-01
2.099791e-01
2.099811e-01
2.099832e-01
2.099852e-01
2.099873e-01
2.099893e-01
2.099913e-01
2.099933e-01
2.099952e-01
2.099971e-01
2.099990e-01
2.099991e-01
2.099972e-01
2.099954e-01
2.099935e-01
2.099916e-01
2.099897e-01
2.099877e-01
2.099857e-01
2.099837e-01
2.099817e-01
2.099797e-01
2.099777e-01
2.099758e-01
2.099741e-01
2.099725e-01
2.099711e-01
2.099699e-01
2.099690e-01
2.099684e-01
2.099681e-01
2.099682e-01
2.099685e-01
2.099692e-01
2.099702e-01
2.099714e-01
2.099728e-01
2.099744e-01
2.099761e-01
2.099780e-01
2.099799e-01
2.099818e-01
2.099838e-01
2.099858e-01
2.099877e-01
2.099897e-01
2.099916e-01
2.099935e-01
2.099954e-01
2.099972e-01
2.099991e-01
2.099991e-01
2.099974e-01
2.099956e-01
2.099938e-01
2.099920e-01
2.099901e-01
2.099883e-01
2.099864e-01
2.099845e-01
2.099826e-01
2.099807e-01
2.099788e-01
2.099771e-01
2.099754e-01
2.099739e-01
2.099726e-01
2.099715e-01
2.099707e-01
2.099701e-01
2.099699e-01
2.099699e-01
2.099702e-01
2.099709e-01
2.099717e-01
2.099729e-01
2.099742e-01
2.099757e-01
2.099773e-01
2.099790e-01
2.099809e-01
2.099827e-01
2.099846e-01
2.099864e-01
2.099883e-01
2.099901e-01
2.099920e-01
2.099938e-01
2.099956e-01
2.099974e-01
2.099991e-01
2.099992e-01
2.099975e-01
2.099958e-01
2.099941e-01
2.099924e-01
2.099907e-01
2.099889e-01
2.099871e-01
2.099854e-01
2.099836e-01
2.099818e-01
2.099801e-01
2.099785e-01
2.099769e-01
2.099755e-01
2.099743e-01
2.099733e-01
2.099725e-01
2.099720e-01
2.099718e-01
2.099718e-01
2.099721e-01
2.099727e-01
2.099735e-01
2.099745e-01
2.099758e-01
2.099771e-01
2.099787e-01
2.099803e-01
2.099819e-01
2.099837e-01
2.099854e-01
2.099872e-01
2.099889e-01
2.099907e-01
2.099924e-01
2.099941e-01
2.099958e-01
2.099975e-01
2.099992e-01
2.099992e-01
2.099977e-01
2.099961e-01
2.099945e-01
2.099929e-01
2.099913e-01
2.099896e-01
2.099880e-01
2.099863e-01
2.099847e-01
2.099830e-01
2.099815e-01
2.099800e-01
2.099786e-01
2.099773e-01
2.099762e-01
2.099752e-01
2.099745e-01
2.099740e-01
2.099738e-01
2.099738e-01
2.099741e-01
2.099746e-01
2.099754e-01
2.099763e-01
2.099774e-01
2.099787e-01
2.099801e-01
2.099816e-01
2.099831e-01
2.099847e-01
2.099864e-01
2.099880e-01
2.099896e-01
2.099913e-01
2.099929e-01
2.099945e-01
2.099961e-01
2.099976e-01
2.099992e-01
2.099993e-01
2.099978e-01
2.099964e-01
2.099949e-01
2.099934e-01
2.099919e-01
2.099904e-01
2.099889e-01
2.099873e-01
2.099858e-01
2.099843e-01
2.099829e-01
2.099815e-01
2.099803e-01
2.099791e-01
2.099781e-01
2.099772e-01
2.099766e-01
2.099762e-01
2.099760e-01
2.099760e-01
2.099762e-01
2.099767e-01
2.099773e-01
2.099782e-01
2.099792e-01
2.099804e-01
2.099816e-01
2.099830e-01
2.099844e-01
2.099859e-01
2.099873e-01
2.099889e-01
2.099904e-01
2.099919e-01
2.099934e-01
2.099949e-01
2.099963e-01
2.099978e-01
2.099993e-01
2.099993e-01
2.099980e-01
2.099967e-01
2.099953e-01
2.099939e-01
2.099926e-01
2.099912e-01
2.099898e-01
2.099884e-01
2.099870e-01
2.099857e-01
2.099844e-01
2.099832e-01
2.099820e-01
2.099810e-01
2.099801e-01
2.099793e-01
2.099787e-01
2.099783e-01
2.099781e-01
2.099782e-01
2.099784e-01
2.099788e-01
2.099794e-01
2.099801e-01
2.099810e-01
2.099821e-01
2.099832e-01
2.099844e-01
2.099857e-01
2.099870e-01
2.099884e-01
2.099898e-01
2.099912e-01
2.099925e-01
2.099939e-01
2.099953e-01
2.099966e-01
2.099980e-01
2.099993e-01
2.099994e-01
2.099982e-01
2.099970e-01
2.099957e-01
2.099945e-01
2.099933e-01
2.099920e-01
2.099908e-01
2.099895e-01
2.099883e-01
2.099871e-01
2.099859e-01
2.099848e-01
2.099838e-01
2.099829e-01
2.099821e-01
2.099814e-01
2.099809e-01
2.099805e-01
2.099804e-01
2.099804e-01
2.099806e-01
2.099809e-01
2.099814e-01
2.099821e-01
2.099829e-01
2.099838e-01
2.099848e-01
2.099859e-01
2.099871e-01
2.099883e-01
2.099895e-01
2.099907e-01
2.099920e-01
2.099932e-01
2.099945e-01
2.099957e-01
2.099969e-01
2.099982e-01
2.099994e-01
2.099995e-01
2.099984e-01
2.099973e-01
2.099962e-01
2.099951e-01
2.099940e-01
2.099928e-01
2.099917e-01
2.099906e-01
2.099895e-01
2.099885e-01
2.099874e-01
2.099865e-01
2.099856e-01
2.099848e-01
2.099841e-01
2.099835e-01
2.099830e-01
2.099827e-01
2.099826e-01
2.099826e-01
2.099827e-01
2.099830e-01
2.099835e-01
2.099841e-01
2.099848e-01
2.099856e-01
2.099865e-01
2.099874e-01
2.099884e-01
2.099895e-01
2.099906e-01
2.099917e-01
2.099928e-01
2.099939e-01
2.099950e-01
2.099961e-01
2.099972e-01
2.099983e-01
2.099994e-01
2.099995e-01
2.099986e-01
2.099976e-01
2.099966e-01
2.099956e-01
2.099947e-01
2.099937e-01
2.099927e-01
2.099917e-01
2.099908e-01
2.099899e-01
2.099890e-01
2.099881e-01
2.099874e-01
2.099867e-01
2.099860e-01
2.099855e-01
2.099852e-01
2.099849e-01
2.099848e-01
2.099848e-01
2.099849e-01
2.099852e-01
2.099855e-01
2.099860e-01
2.099867e-01
2.099873e-01
2.099881e-01
2.099890e-01
2.099898e-01
2.099908e-01
2.099917e-01
2.099927e-01
2.099936e-01
2.099946e-01
2.099956e-01
2.099966e-01
2.099976e-01
2.099985e-01
2.099995e-01
2.099996e-01
2.099987e-01
2.099979e-01
2.099971e-01
2.099962e-01
2.099954e-01
2.099945e-01
2.099937e-01
2.099929e-01
2.099921e-01
2.099913e-01
2.099905e-01
2.099898e-01
2.099891e-01
2.099885e-01
2.099880e-01
2.099876e-01
2.099872e-01
2.099870e-01
2.099869e-01
2.099869e-01
2.099870e-01
2.099872e-01
2.099876e-01
2.099880e-01
2.099885e-01
2.099891e-01
2.099898e-01
2.099905e-01
2.099912e-01
2.099920e-01
2.099928e-01
2.099937e-01
2.099945e-01
2.099953e-01
2.099962e-01
2.099970e-01
2.099979e-01
2.099987e-01
2.099996e-01
2.099996e-01
2.099989e-01
2.099982e-01
2.099975e-01
2.099968e-01
2.099961e-01
2.099954e-01
2.099947e-01
2.099940e-01
2.099933e-01
2.099926e-01
2.099920e-01
2.099914e-01
2.099909e-01
2.099904e-01
2.099899e-01
2.099896e-01
2.099893e-01
2.099891e-01
2.099890e-01
2.099890e-01
2.099891e-01
2.099893e-01
2.099896e-01
2.099899e-01
2.099903e-01
2.099908e-01
2.099914e-01
2.099920e-01
2.099926e-01
2.099933e-01
2.099939e-01
2.099946e-01
2.099953e-01
2.099961e-01
2.099968e-01
2.099975e-01
2.099982e-01
2.099989e-01
2.099996e-01
2.099997e-01
2.099991e-01
2.099986e-01
2.099980e-01
2.099974e-01
2.099968e-01
2.099962e-01
2.099957e-01
2.099951e-01
2.099945e-01
2.099940e-01
2.099935e-01
2.099930e-01
2.099926e-01
2.099922e-01
2.099918e-01
2.099915e-01
2.099913e-01
2.099912e-01
2.099911e-01
2.099911e-01
2.099912e-01
2.099913e-01
2.099915e-01
2.099918e-01
2.099921e-01
2.099925e-01
2.099930e-01
2.099935e-01
2.099940e-01
2.099945e-01
2.099951e-01
2.099956e-01
2.099962e-01
2.099968e-01
2.099974e-01
2.099980e-01
2.099985e-01
2.099991e-01
2.099997e-01
2.099998e-01
2.099993e-01
2.099989e-01
2.099984e-01
2.099980e-01
2.099975e-01
2.099971e-01
2.099966e-01
2.099962e-01
2.099958e-01
2.099954e-01
2.099950e-01
2.099946e-01
2.099943e-01
2.099939e-01
2.099937e-01
2.099935e-01
2.099933e-01
2.099932e-01
2.099931e-01
2.099931e-01
2.099932e-01
2.099933e-01
2.099934e-01
2.099937e-01
2.099939e-01
2.099942e-01
2.099946e-01
2.099949e-01
2.099953e-01
2.099957e-01
2.099962e-01
2.099966e-01
2.099971e-01
2.099975e-01
2.099980e-01
2.099984e-01
2.099989e-01
2.099993e-01
2.099998e-01
2.099998e-01
2.099995e-01
2.099992e-01
2.099989e-01
2.099986e-01
2.099982e-01
2.099979e-01
2.099976e-01
2.099973e-01
2.099970e-01
2.099967e-01
2.099964e-01
2.099962e-01
2.099959e-01
2.099957e-01
2.099955e-01
2.099954e-01
2.099952e-01
2.099951e-01
2.099951e-01
2.099951e-01
2.099951e-01
2.099952e-01
2.099953e-01
2.099955e-01
2.099957e-01
2.099959e-01
2.099961e-01
2.099964e-01
2.099967e-01
2.099970e-01
2.099973e-01
2.099976e-01
2.099979e-01
2.099982e-01
2.099985e-01
2.099989e-01
2.099992e-01
2.099995e-01
2.099998e-01
2.099999e-01
2.099997e-01
2.099995e-01
2.099993e-01
2.099991e-01
2.099989e-01
2.099988e-01
2.099986e-01
2.099984e-01
2.099982e-01
2.099980e-01
2.099979e-01