# vtk DataFile Version 3.0
3D Lactate Concentration Field from MicroC H5 Data
ASCII
DATASET STRUCTURED_GRID
DIMENSIONS 41 41 41
POINTS 68921 float
-2.000000e-03 -2.000000e-03 -2.000000e-03
-1.900000e-03 -2.000000e-03 -2.000000e-03
-1.800000e-03 -2.000000e-03 -2.000000e-03
-1.700000e-03 -2.000000e-03 -2.000000e-03
-1.600000e-03 -2.000000e-03 -2.000000e-03
-1.500000e-03 -2.000000e-03 -2.000000e-03
-1.400000e-03 -2.000000e-03 -2.000000e-03
-1.300000e-03 -2.000000e-03 -2.000000e-03
-1.200000e-03 -2.000000e-03 -2.000000e-03
-1.100000e-03 -2.000000e-03 -2.000000e-03
-1.000000e-03 -2.000000e-03 -2.000000e-03
-9.000000e-04 -2.000000e-03 -2.000000e-03
-8.000000e-04 -2.000000e-03 -2.000000e-03
-7.000000e-04 -2.000000e-03 -2.000000e-03
-6.000000e-04 -2.000000e-03 -2.000000e-03
-5.000000e-04 -2.000000e-03 -2.000000e-03
-4.000000e-04 -2.000000e-03 -2.000000e-03
-3.000000e-04 -2.000000e-03 -2.000000e-03
-2.000000e-04 -2.000000e-03 -2.000000e-03
-1.000000e-04 -2.000000e-03 -2.000000e-03
0.000000e+00 -2.000000e-03 -2.000000e-03
1.000000e-04 -2.000000e-03 -2.000000e-03
2.000000e-04 -2.000000e-03 -2.000000e-03
3.000000e-04 -2.000000e-03 -2.000000e-03
4.000000e-04 -2.000000e-03 -2.000000e-03
5.000000e-04 -2.000000e-03 -2.000000e-03
6.000000e-04 -2.000000e-03 -2.000000e-03
7.000000e-04 -2.000000e-03 -2.000000e-03
8.000000e-04 -2.000000e-03 -2.000000e-03
9.000000e-04 -2.000000e-03 -2.000000e-03
1.000000e-03 -2.000000e-03 -2.000000e-03
1.100000e-03 -2.000000e-03 -2.000000e-03
1.200000e-03 -2.000000e-03 -2.000000e-03
1.300000e-03 -2.000000e-03 -2.000000e-03
1.400000e-03 -2.000000e-03 -2.000000e-03
1.500000e-03 -2.000000e-03 -2.000000e-03
1.600000e-03 -2.000000e-03 -2.000000e-03
1.700000e-03 -2.000000e-03 -2.000000e-03
1.800000e-03 -2.000000e-03 -2.000000e-03
1.900000e-03 -2.000000e-03 -2.000000e-03
2.000000e-03 -2.000000e-03 -2.000000e-03
-2.000000e-03 -1.900000e-03 -2.000000e-03
-1.900000e-03 -1.900000e-03 -2.000000e-03
-1.800000e-03 -1.900000e-03 -2.000000e-03
-1.700000e-03 -1.900000e-03 -2.000000e-03
-1.600000e-03 -1.900000e-03 -2.000000e-03
-1.500000e-03 -1.900000e-03 -2.000000e-03
-1.400000e-03 -1.900000e-03 -2.000000e-03
-1.300000e-03 -1.900000e-03 -2.000000e-03
-1.200000e-03 -1.900000e-03 -2.000000e-03
-1.100000e-03 -1.900000e-03 -2.000000e-03
-1.000000e-03 -1.900000e-03 -2.000000e-03
-9.000000e-04 -1.900000e-03 -2.000000e-03
-8.000000e-04 -1.900000e-03 -2.000000e-03
-7.000000e-04 -1.900000e-03 -2.000000e-03
-6.000000e-04 -1.900000e-03 -2.000000e-03
-5.000000e-04 -1.900000e-03 -2.000000e-03
-4.000000e-04 -1.900000e-03 -2.000000e-03
-3.000000e-04 -1.900000e-03 -2.000000e-03
-2.000000e-04 -1.900000e-03 -2.000000e-03
-1.000000e-04 -1.900000e-03 -2.000000e-03
0.000000e+00 -1.900000e-03 -2.000000e-03
1.000000e-04 -1.900000e-03 -2.000000e-03
2.000000e-04 -1.900000e-03 -2.000000e-03
3.000000e-04 -1.900000e-03 -2.000000e-03
4.000000e-04 -1.900000e-03 -2.000000e-03
5.000000e-04 -1.900000e-03 -2.000000e-03
6.000000e-04 -1.900000e-03 -2.000000e-03
7.000000e-04 -1.900000e-03 -2.000000e-03
8.000000e-04 -1.900000e-03 -2.000000e-03
9.000000e-04 -1.900000e-03 -2.000000e-03
1.000000e-03 -1.900000e-03 -2.000000e-03
1.100000e-03 -1.900000e-03 -2.000000e-03
1.200000e-03 -1.900000e-03 -2.000000e-03
1.300000e-03 -1.900000e-03 -2.000000e-03
1.400000e-03 -1.900000e-03 -2.000000e-03
1.500000e-03 -1.900000e-03 -2.000000e-03
1.600000e-03 -1.900000e-03 -2.000000e-03
1.700000e-03 -1.900000e-03 -2.000000e-03
1.800000e-03 -1.900000e-03 -2.000000e-03
1.900000e-03 -1.900000e-03 -2.000000e-03
2.000000e-03 -1.900000e-03 -2.000000e-03
-2.000000e-03 -1.800000e-03 -2.000000e-03
-1.900000e-03 -1.800000e-03 -2.000000e-03
-1.800000e-03 -1.800000e-03 -2.000000e-03
-1.700000e-03 -1.800000e-03 -2.000000e-03
-1.600000e-03 -1.800000e-03 -2.000000e-03
-1.500000e-03 -1.800000e-03 -2.000000e-03
-1.400000e-03 -1.800000e-03 -2.000000e-03
-1.300000e-03 -1.800000e-03 -2.000000e-03
-1.200000e-03 -1.800000e-03 -2.000000e-03
-1.100000e-03 -1.800000e-03 -2.000000e-03
-1.000000e-03 -1.800000e-03 -2.000000e-03
-9.000000e-04 -1.800000e-03 -2.000000e-03
-8.000000e-04 -1.800000e-03 -2.000000e-03
-7.000000e-04 -1.800000e-03 -2.000000e-03
-6.000000e-04 -1.800000e-03 -2.000000e-03
-5.000000e-04 -1.800000e-03 -2.000000e-03
-4.000000e-04 -1.800000e-03 -2.000000e-03
-3.000000e-04 -1.800000e-03 -2.000000e-03
-2.000000e-04 -1.800000e-03 -2.000000e-03
-1.000000e-04 -1.800000e-03 -2.000000e-03
0.000000e+00 -1.800000e-03 -2.000000e-03
1.000000e-04 -1.800000e-03 -2.000000e-03
2.000000e-04 -1.800000e-03 -2.000000e-03
3.000000e-04 -1.800000e-03 -2.000000e-03
4.000000e-04 -1.800000e-03 -2.000000e-03
5.000000e-04 -1.800000e-03 -2.000000e-03
6.000000e-04 -1.800000e-03 -2.000000e-03
7.000000e-04 -1.800000e-03 -2.000000e-03
8.000000e-04 -1.800000e-03 -2.000000e-03
9.000000e-04 -1.800000e-03 -2.000000e-03
1.000000e-03 -1.800000e-03 -2.000000e-03
1.100000e-03 -1.800000e-03 -2.000000e-03
1.200000e-03 -1.800000e-03 -2.000000e-03
1.300000e-03 -1.800000e-03 -2.000000e-03
1.400000e-03 -1.800000e-03 -2.000000e-03
1.500000e-03 -1.800000e-03 -2.000000e-03
1.600000e-03 -1.800000e-03 -2.000000e-03
1.700000e-03 -1.800000e-03 -2.000000e-03
1.800000e-03 -1.800000e-03 -2.000000e-03
1.900000e-03 -1.800000e-03 -2.000000e-03
2.000000e-03 -1.800000e-03 -2.000000e-03
-2.000000e-03 -1.700000e-03 -2.000000e-03
-1.900000e-03 -1.700000e-03 -2.000000e-03
-1.800000e-03 -1.700000e-03 -2.000000e-03
-1.700000e-03 -1.700000e-03 -2.000000e-03
-1.600000e-03 -1.700000e-03 -2.000000e-03
-1.500000e-03 -1.700000e-03 -2.000000e-03
-1.400000e-03 -1.700000e-03 -2.000000e-03
-1.300000e-03 -1.700000e-03 -2.000000e-03
-1.200000e-03 -1.700000e-03 -2.000000e-03
-1.100000e-03 -1.700000e-03 -2.000000e-03
-1.000000e-03 -1.700000e-03 -2.000000e-03
-9.000000e-04 -1.700000e-03 -2.000000e-03
-8.000000e-04 -1.700000e-03 -2.000000e-03
-7.000000e-04 -1.700000e-03 -2.000000e-03
-6.000000e-04 -1.700000e-03 -2.000000e-03
-5.000000e-04 -1.700000e-03 -2.000000e-03
-4.000000e-04 -1.700000e-03 -2.000000e-03
-3.000000e-04 -1.700000e-03 -2.000000e-03
-2.000000e-04 -1.700000e-03 -2.000000e-03
-1.000000e-04 -1.700000e-03 -2.000000e-03
0.000000e+00 -1.700000e-03 -2.000000e-03
1.000000e-04 -1.700000e-03 -2.000000e-03
2.000000e-04 -1.700000e-03 -2.000000e-03
3.000000e-04 -1.700000e-03 -2.000000e-03
4.000000e-04 -1.700000e-03 -2.000000e-03
5.000000e-04 -1.700000e-03 -2.000000e-03
6.000000e-04 -1.700000e-03 -2.000000e-03
7.000000e-04 -1.700000e-03 -2.000000e-03
8.000000e-04 -1.700000e-03 -2.000000e-03
9.000000e-04 -1.700000e-03 -2.000000e-03
1.000000e-03 -1.700000e-03 -2.000000e-03
1.100000e-03 -1.700000e-03 -2.000000e-03
1.200000e-03 -1.700000e-03 -2.000000e-03
1.300000e-03 -1.700000e-03 -2.000000e-03
1.400000e-03 -1.700000e-03 -2.000000e-03
1.500000e-03 -1.700000e-03 -2.000000e-03
1.600000e-03 -1.700000e-03 -2.000000e-03
1.700000e-03 -1.700000e-03 -2.000000e-03
1.800000e-03 -1.700000e-03 -2.000000e-03
1.900000e-03 -1.700000e-03 -2.000000e-03
2.000000e-03 -1.700000e-03 -2.000000e-03
-2.000000e-03 -1.600000e-03 -2.000000e-03
-1.900000e-03 -1.600000e-03 -2.000000e-03
-1.800000e-03 -1.600000e-03 -2.000000e-03
-1.700000e-03 -1.600000e-03 -2.000000e-03
-1.600000e-03 -1.600000e-03 -2.000000e-03
-1.500000e-03 -1.600000e-03 -2.000000e-03
-1.400000e-03 -1.600000e-03 -2.000000e-03
-1.300000e-03 -1.600000e-03 -2.000000e-03
-1.200000e-03 -1.600000e-03 -2.000000e-03
-1.100000e-03 -1.600000e-03 -2.000000e-03
-1.000000e-03 -1.600000e-03 -2.000000e-03
-9.000000e-04 -1.600000e-03 -2.000000e-03
-8.000000e-04 -1.600000e-03 -2.000000e-03
-7.000000e-04 -1.600000e-03 -2.000000e-03
-6.000000e-04 -1.600000e-03 -2.000000e-03
-5.000000e-04 -1.600000e-03 -2.000000e-03
-4.000000e-04 -1.600000e-03 -2.000000e-03
-3.000000e-04 -1.600000e-03 -2.000000e-03
-2.000000e-04 -1.600000e-03 -2.000000e-03
-1.000000e-04 -1.600000e-03 -2.000000e-03
0.000000e+00 -1.600000e-03 -2.000000e-03
1.000000e-04 -1.600000e-03 -2.000000e-03
2.000000e-04 -1.600000e-03 -2.000000e-03
3.000000e-04 -1.600000e-03 -2.000000e-03
4.000000e-04 -1.600000e-03 -2.000000e-03
5.000000e-04 -1.600000e-03 -2.000000e-03
6.000000e-04 -1.600000e-03 -2.000000e-03
7.000000e-04 -1.600000e-03 -2.000000e-03
8.000000e-04 -1.600000e-03 -2.000000e-03
9.000000e-04 -1.600000e-03 -2.000000e-03
1.000000e-03 -1.600000e-03 -2.000000e-03
1.100000e-03 -1.600000e-03 -2.000000e-03
1.200000e-03 -1.600000e-03 -2.000000e-03
1.300000e-03 -1.600000e-03 -2.000000e-03
1.400000e-03 -1.600000e-03 -2.000000e-03
1.500000e-03 -1.600000e-03 -2.000000e-03
1.600000e-03 -1.600000e-03 -2.000000e-03
1.700000e-03 -1.600000e-03 -2.000000e-03
1.800000e-03 -1.600000e-03 -2.000000e-03
1.900000e-03 -1.600000e-03 -2.000000e-03
2.000000e-03 -1.600000e-03 -2.000000e-03
-2.000000e-03 -1.500000e-03 -2.000000e-03
-1.900000e-03 -1.500000e-03 -2.000000e-03
-1.800000e-03 -1.500000e-03 -2.000000e-03
-1.700000e-03 -1.500000e-03 -2.000000e-03
-1.600000e-03 -1.500000e-03 -2.000000e-03
-1.500000e-03 -1.500000e-03 -2.000000e-03
-1.400000e-03 -1.500000e-03 -2.000000e-03
-1.300000e-03 -1.500000e-03 -2.000000e-03
-1.200000e-03 -1.500000e-03 -2.000000e-03
-1.100000e-03 -1.500000e-03 -2.000000e-03
-1.000000e-03 -1.500000e-03 -2.000000e-03
-9.000000e-04 -1.500000e-03 -2.000000e-03
-8.000000e-04 -1.500000e-03 -2.000000e-03
-7.000000e-04 -1.500000e-03 -2.000000e-03
-6.000000e-04 -1.500000e-03 -2.000000e-03
-5.000000e-04 -1.500000e-03 -2.000000e-03
-4.000000e-04 -1.500000e-03 -2.000000e-03
-3.000000e-04 -1.500000e-03 -2.000000e-03
-2.000000e-04 -1.500000e-03 -2.000000e-03
-1.000000e-04 -1.500000e-03 -2.000000e-03
0.000000e+00 -1.500000e-03 -2.000000e-03
1.000000e-04 -1.500000e-03 -2.000000e-03
2.000000e-04 -1.500000e-03 -2.000000e-03
3.000000e-04 -1.500000e-03 -2.000000e-03
4.000000e-04 -1.500000e-03 -2.000000e-03
5.000000e-04 -1.500000e-03 -2.000000e-03
6.000000e-04 -1.500000e-03 -2.000000e-03
7.000000e-04 -1.500000e-03 -2.000000e-03
8.000000e-04 -1.500000e-03 -2.000000e-03
9.000000e-04 -1.500000e-03 -2.000000e-03
1.000000e-03 -1.500000e-03 -2.000000e-03
1.100000e-03 -1.500000e-03 -2.000000e-03
[...]
CELL_DATA 64000
SCALARS Lactate_Concentration_mM float 1
LOOKUP_TABLE default
1.000002e+00
1.000005e+00
1.000008e+00
1.000011e+00
1.000014e+00
1.000017e+00
1.000020e+00
1.000024e+00
1.000027e+00
1.000030e+00
1.000033e+00
1.000035e+00
1.000038e+00
1.000040e+00
1.000043e+00
1.000045e+00
1.000046e+00
1.000047e+00
1.000048e+00
1.000049e+00
1.000049e+00
1.000048e+00
1.000048e+00
1.000046e+00
1.000045e+00
1.000043e+00
1.000041e+00
1.000038e+00
1.000036e+00
1.000033e+00
1.000030e+00
1.000027e+00
1.000024e+00
1.000021e+00
1.000018e+00
1.000014e+00
1.000011e+00
1.000008e+00
1.000005e+00
1.000002e+00
1.000005e+00
1.000014e+00
1.000024e+00
1.000033e+00
1.000042e+00
1.000052e+00
1.000061e+00
1.000071e+00
1.000080e+00
1.000089e+00
1.000098e+00
1.000106e+00
1.000114e+00
1.000122e+00
1.000128e+00
1.000134e+00
1.000139e+00
1.000143e+00
1.000145e+00
1.000147e+00
1.000147e+00
1.000146e+00
1.000143e+00
1.000140e+00
1.000135e+00
1.000129e+00
1.000123e+00
1.000116e+00
1.000108e+00
1.000099e+00
1.000090e+00
1.000081e+00
1.000072e+00
1.000062e+00
1.000053e+00
1.000043e+00
1.000034e+00
1.000024e+00
1.000014e+00
1.000005e+00
1.000008e+00
1.000024e+00
1.000039e+00
1.000055e+00
1.000071e+00
1.000086e+00
1.000102e+00
1.000118e+00
1.000133e+00
1.000149e+00
1.000163e+00
1.000177e+00
1.000191e+00
1.000203e+00
1.000214e+00
1.000224e+00
1.000232e+00
1.000239e+00
1.000243e+00
1.000245e+00
1.000245e+00
1.000244e+00
1.000240e+00
1.000234e+00
1.000226e+00
1.000216e+00
1.000205e+00
1.000193e+00
1.000180e+00
1.000166e+00
1.000151e+00
1.000136e+00
1.000120e+00
1.000104e+00
1.000088e+00
1.000072e+00
1.000056e+00
1.000040e+00
1.000024e+00
1.000008e+00
1.000011e+00
1.000033e+00
1.000055e+00
1.000077e+00
1.000099e+00
1.000121e+00
1.000143e+00
1.000165e+00
1.000187e+00
1.000209e+00
1.000229e+00
1.000249e+00
1.000268e+00
1.000286e+00
1.000302e+00
1.000315e+00
1.000327e+00
1.000336e+00
1.000342e+00
1.000345e+00
1.000346e+00
1.000343e+00
1.000337e+00
1.000329e+00
1.000318e+00
1.000304e+00
1.000289e+00
1.000272e+00
1.000253e+00
1.000233e+00
1.000212e+00
1.000190e+00
1.000168e+00
1.000146e+00
1.000124e+00
1.000101e+00
1.000079e+00
1.000056e+00
1.000034e+00
1.000011e+00
1.000014e+00
1.000042e+00
1.000071e+00
1.000099e+00
1.000128e+00
1.000156e+00
1.000185e+00
1.000213e+00
1.000241e+00
1.000269e+00
1.000296e+00
1.000322e+00
1.000347e+00
1.000370e+00
1.000390e+00
1.000408e+00
1.000423e+00
1.000435e+00
1.000443e+00
1.000448e+00
1.000448e+00
1.000444e+00
1.000437e+00
1.000426e+00
1.000411e+00
1.000394e+00
1.000374e+00
1.000351e+00
1.000327e+00
1.000301e+00
1.000273e+00
1.000246e+00
1.000217e+00
1.000188e+00
1.000159e+00
1.000130e+00
1.000101e+00
1.000072e+00
1.000043e+00
1.000014e+00
1.000017e+00
1.000052e+00
1.000086e+00
1.000121e+00
1.000156e+00
1.000191e+00
1.000226e+00
1.000261e+00
1.000296e+00
1.000330e+00
1.000364e+00
1.000396e+00
1.000426e+00
1.000455e+00
1.000480e+00
1.000503e+00
1.000522e+00
1.000536e+00
1.000546e+00
1.000552e+00
1.000552e+00
1.000548e+00
1.000539e+00
1.000525e+00
1.000507e+00
1.000485e+00
1.000460e+00
1.000432e+00
1.000401e+00
1.000369e+00
1.000336e+00
1.000301e+00
1.000266e+00
1.000231e+00
1.000195e+00
1.000159e+00
1.000124e+00
1.000088e+00
1.000053e+00
1.000018e+00
1.000020e+00
1.000061e+00
1.000102e+00
1.000143e+00
1.000185e+00
1.000226e+00
1.000268e+00
1.000310e+00
1.000351e+00
1.000392e+00
1.000432e+00
1.000470e+00
1.000507e+00
1.000541e+00
1.000572e+00
1.000599e+00
1.000622e+00
1.000640e+00
1.000652e+00
1.000659e+00
1.000659e+00
1.000654e+00
1.000643e+00
1.000626e+00
1.000604e+00
1.000578e+00
1.000547e+00
1.000514e+00
1.000477e+00
1.000439e+00
1.000398e+00
1.000357e+00
1.000315e+00
1.000273e+00
1.000231e+00
1.000189e+00
1.000146e+00
1.000104e+00
1.000063e+00
1.000021e+00
1.000024e+00
1.000071e+00
1.000118e+00
1.000165e+00
1.000213e+00
1.000261e+00
1.000310e+00
1.000358e+00
1.000406e+00
1.000454e+00
1.000501e+00
1.000546e+00
1.000589e+00
1.000629e+00
1.000665e+00
1.000697e+00
1.000724e+00
1.000745e+00
1.000760e+00
1.000768e+00
1.000769e+00
1.000762e+00
1.000749e+00
1.000729e+00
1.000703e+00
1.000672e+00
1.000636e+00
1.000597e+00
1.000554e+00
1.000509e+00
1.000462e+00
1.000414e+00
1.000365e+00
1.000316e+00
1.000267e+00
1.000218e+00
1.000169e+00
1.000120e+00
1.000072e+00
1.000024e+00
1.000027e+00
1.000080e+00
1.000133e+00
1.000187e+00
1.000241e+00
1.000296e+00
1.000351e+00
1.000406e+00
1.000461e+00
1.000516e+00
1.000569e+00
1.000621e+00
1.000671e+00
1.000718e+00
1.000760e+00
1.000797e+00
1.000828e+00
1.000853e+00
1.000870e+00
1.000879e+00
1.000880e+00
1.000873e+00
1.000857e+00
1.000834e+00
1.000804e+00
1.000768e+00
1.000726e+00
1.000680e+00
1.000631e+00
1.000579e+00
1.000525e+00
1.000470e+00
1.000414e+00
1.000358e+00
1.000302e+00
1.000247e+00
1.000191e+00
1.000136e+00
1.000082e+00
1.000027e+00
1.000030e+00
1.000089e+00
1.000149e+00
1.000209e+00
1.000269e+00
1.000330e+00
1.000392e+00
1.000454e+00
1.000516e+00
1.000577e+00
1.000638e+00
1.000697e+00
1.000754e+00
1.000807e+00
1.000855e+00
1.000898e+00
1.000934e+00
1.000962e+00
1.000981e+00
1.000992e+00
1.000993e+00
1.000985e+00
1.000967e+00
1.000940e+00
1.000906e+00
1.000864e+00
1.000817e+00
1.000764e+00
1.000708e+00
1.000649e+00
1.000588e+00
1.000526e+00
1.000463e+00
1.000400e+00
1.000337e+00
1.000275e+00
1.000213e+00
1.000152e+00
1.000091e+00
1.000030e+00
1.000033e+00
1.000098e+00
1.000163e+00
1.000229e+00
1.000296e+00
1.000364e+00
1.000432e+00
1.000500e+00
1.000569e+00
1.000638e+00
1.000706e+00
1.000772e+00
1.000835e+00
1.000895e+00
1.000950e+00
1.000998e+00
1.001039e+00
1.001071e+00
1.001093e+00
1.001105e+00
1.001106e+00
1.001097e+00
1.001077e+00
1.001046e+00
1.001007e+00
1.000960e+00
1.000907e+00
1.000848e+00
1.000784e+00
1.000718e+00
1.000650e+00
1.000580e+00
1.000511e+00
1.000441e+00
1.000371e+00
1.000303e+00
1.000234e+00
1.000167e+00
1.000100e+00
1.000033e+00
1.000035e+00
1.000106e+00
1.000177e+00
1.000249e+00
1.000322e+00
1.000396e+00
1.000470e+00
1.000546e+00
1.000621e+00
1.000697e+00
1.000772e+00
1.000845e+00
1.000916e+00
1.000982e+00
1.001043e+00
1.001097e+00
1.001143e+00
1.001179e+00
1.001204e+00
1.001217e+00
1.001219e+00
1.001208e+00
1.001185e+00
1.001152e+00
1.001108e+00
1.001055e+00
1.000995e+00
1.000929e+00
1.000859e+00
1.000786e+00
1.000710e+00
1.000634e+00
1.000557e+00
1.000480e+00
1.000404e+00
1.000329e+00
1.000255e+00
1.000181e+00
1.000109e+00
1.000036e+00
1.000038e+00
1.000114e+00
1.000191e+00
1.000268e+00
1.000347e+00
1.000426e+00
1.000507e+00
1.000589e+00
1.000671e+00
1.000753e+00
1.000835e+00
1.000915e+00
1.000993e+00
1.001066e+00
1.001133e+00
1.001193e+00
1.001244e+00
1.001284e+00
1.001312e+00
1.001327e+00
1.001329e+00
1.001317e+00
1.001291e+00
1.001254e+00
1.001205e+00
1.001147e+00
1.001081e+00
1.001008e+00
1.000931e+00
1.000850e+00
1.000768e+00
1.000684e+00
1.000601e+00
1.000518e+00
1.000436e+00
1.000354e+00
1.000274e+00
1.000195e+00
1.000117e+00
1.000039e+00
1.000040e+00
1.000121e+00
1.000203e+00
1.000286e+00
1.000369e+00
1.000454e+00
1.000541e+00
1.000629e+00
1.000717e+00
1.000806e+00
1.000895e+00
1.000982e+00
1.001066e+00
1.001146e+00
1.001219e+00
1.001285e+00
1.001340e+00
1.001384e+00
1.001415e+00
1.001432e+00
1.001433e+00
1.001420e+00
1.001392e+00
1.001351e+00
1.001298e+00
1.001234e+00
1.001162e+00
1.001083e+00
1.000999e+00
1.000911e+00
1.000822e+00
1.000732e+00
1.000642e+00
1.000553e+00
1.000465e+00
1.000378e+00
1.000292e+00
1.000208e+00
1.000124e+00
1.000041e+00
1.000043e+00
1.000128e+00
1.000214e+00
1.000301e+00
1.000390e+00
1.000480e+00
1.000572e+00
1.000665e+00
1.000759e+00
1.000854e+00
1.000949e+00
1.001043e+00
1.001133e+00
1.001219e+00
1.001298e+00
1.001369e+00
1.001430e+00
1.001477e+00
1.001511e+00
1.001529e+00
1.001531e+00
1.001517e+00
1.001486e+00
1.001442e+00
1.001384e+00
1.001315e+00
1.001236e+00
1.001151e+00
1.001061e+00
1.000967e+00
1.000871e+00
1.000775e+00
1.000679e+00
1.000585e+00
1.000491e+00
1.000399e+00
1.000309e+00
1.000219e+00
1.000131e+00
1.000044e+00
1.000045e+00
1.000134e+00
1.000224e+00
1.000315e+00
1.000408e+00
1.000502e+00
1.000599e+00
1.000697e+00
1.000796e+00
1.000897e+00
1.000997e+00
1.001096e+00
1.001193e+00
1.001284e+00
1.001369e+00
1.001445e+00
1.001510e+00
1.001561e+00
1.001597e+00
1.001616e+00
1.001618e+00
1.001603e+00
1.001570e+00
1.001522e+00
1.001460e+00
1.001386e+00
1.001303e+00
1.001212e+00
1.001116e+00
1.001016e+00
1.000915e+00
1.000813e+00
1.000712e+00
1.000612e+00
1.000514e+00
1.000418e+00
1.000323e+00
1.000229e+00
1.000137e+00
1.000046e+00
1.000046e+00
1.000139e+00
1.000232e+00
1.000327e+00
1.000423e+00
1.000521e+00
1.000621e+00
1.000724e+00
1.000828e+00
1.000933e+00
1.001038e+00
1.001142e+00
1.001243e+00
1.001339e+00
1.001429e+00
1.001509e+00
1.001578e+00
1.001632e+00
1.001670e+00
1.001691e+00
1.001693e+00
1.001676e+00
1.001642e+00
1.001591e+00
1.001526e+00
1.001447e+00
1.001359e+00
1.001263e+00
1.001162e+00
1.001058e+00
1.000952e+00
1.000845e+00
1.000740e+00
1.000636e+00
1.000533e+00
1.000433e+00
1.000335e+00
1.000238e+00
1.000142e+00
1.000047e+00
1.000047e+00
1.000142e+00
1.000238e+00
1.000336e+00
1.000435e+00
1.000536e+00
1.000639e+00
1.000745e+00
1.000852e+00
1.000961e+00
1.001070e+00
1.001177e+00
1.001283e+00
1.001383e+00
1.001476e+00
1.001560e+00
1.001631e+00
1.001688e+00
1.001728e+00
1.001750e+00
1.001752e+00
1.001735e+00
1.001699e+00
1.001646e+00
1.001577e+00
1.001496e+00
1.001404e+00
1.001304e+00
1.001199e+00
1.001090e+00
1.000980e+00
1.000870e+00
1.000761e+00
1.000654e+00
1.000548e+00
1.000445e+00
1.000344e+00
1.000244e+00
1.000146e+00
1.000049e+00
1.000048e+00
1.000145e+00
1.000243e+00
1.000342e+00
1.000443e+00
1.000546e+00
1.000651e+00
1.000759e+00
1.000869e+00
1.000980e+00
1.001092e+00
1.001202e+00
1.001310e+00
1.001413e+00
1.001509e+00
1.001595e+00
1.001669e+00
1.001727e+00
1.001769e+00
1.001791e+00
1.001793e+00
1.001776e+00
1.001738e+00
1.001684e+00
1.001613e+00
1.001529e+00
1.001435e+00
1.001332e+00
1.001224e+00
1.001113e+00
1.001000e+00
1.000888e+00
1.000776e+00
1.000666e+00
1.000559e+00
1.000453e+00
1.000350e+00
1.000249e+00
1.000149e+00
1.000049e+00
1.000049e+00
1.000146e+00
1.000245e+00
1.000345e+00
1.000447e+00
1.000551e+00
1.000658e+00
1.000767e+00
1.000878e+00
1.000990e+00
1.001103e+00
1.001215e+00
1.001325e+00
1.001429e+00
1.001527e+00
1.001614e+00
1.001689e+00
1.001748e+00
1.001790e+00
1.001813e+00
1.001815e+00
1.001797e+00
1.001760e+00
1.001704e+00
1.001632e+00
1.001547e+00
1.001451e+00
1.001347e+00
1.001238e+00
1.001125e+00
1.001011e+00
1.000897e+00
1.000784e+00
1.000673e+00
1.000564e+00
1.000458e+00
1.000353e+00
1.000251e+00
1.000150e+00
1.000050e+00
1.000049e+00
1.000146e+00
1.000245e+00
1.000345e+00
1.000447e+00
1.000552e+00
1.000658e+00
1.000767e+00
1.000879e+00
1.000991e+00
1.001104e+00
1.001216e+00
1.001326e+00
1.001431e+00
1.001528e+00
1.001616e+00
1.001690e+00
1.001750e+00
1.001792e+00
1.001814e+00
1.001817e+00
1.001799e+00
1.001761e+00
1.001705e+00
1.001633e+00
1.001548e+00
1.001452e+00
1.001348e+00
1.001239e+00
1.001126e+00
1.001012e+00
1.000897e+00
1.000785e+00
1.000673e+00
1.000565e+00
1.000458e+00
1.000354e+00
1.000251e+00
1.000150e+00
1.000050e+00
1.000048e+00
1.000145e+00
1.000243e+00
1.000342e+00
1.000444e+00
1.000547e+00
1.000653e+00
1.000761e+00
1.000871e+00
1.000982e+00
1.001094e+00
1.001205e+00
1.001314e+00
1.001417e+00
1.001513e+00
1.001600e+00
1.001673e+00
1.001732e+00
1.001773e+00
1.001796e+00
1.001798e+00
1.001780e+00
1.001743e+00
1.001688e+00
1.001617e+00
1.001533e+00
1.001438e+00
1.001335e+00
1.001227e+00
1.001115e+00
1.001003e+00
1.000890e+00
1.000778e+00
1.000668e+00
1.000560e+00
1.000454e+00
1.000351e+00
1.000249e+00
1.000149e+00
1.000050e+00
1.000048e+00
1.000143e+00
1.000239e+00
1.000337e+00
1.000436e+00
1.000538e+00
1.000642e+00
1.000748e+00
1.000855e+00
1.000965e+00
1.001074e+00
1.001182e+00
1.001288e+00
1.001389e+00
1.001483e+00
1.001567e+00
1.001639e+00
1.001696e+00
1.001736e+00
1.001757e+00
1.001760e+00
1.001742e+00
1.001706e+00
1.001653e+00
1.001584e+00
1.001502e+00
1.001409e+00
1.001309e+00
1.001203e+00
1.001094e+00
1.000984e+00
1.000873e+00
1.000764e+00
1.000656e+00
1.000550e+00
1.000447e+00
1.000345e+00
1.000245e+00
1.000146e+00
1.000049e+00
1.000046e+00
1.000139e+00
1.000233e+00
1.000328e+00
1.000425e+00
1.000524e+00
1.000625e+00
1.000728e+00
1.000832e+00
1.000938e+00
1.001044e+00
1.001148e+00
1.001250e+00
1.001348e+00
1.001438e+00
1.001518e+00
1.001587e+00
1.001642e+00
1.001680e+00
1.001701e+00
1.001703e+00
1.001687e+00
1.001652e+00
1.001601e+00
1.001534e+00
1.001456e+00
1.001367e+00
1.001270e+00
1.001168e+00
1.001063e+00
1.000957e+00
1.000850e+00
1.000743e+00
1.000639e+00
1.000536e+00
1.000435e+00
1.000336e+00
1.000239e+00
1.000143e+00
1.000047e+00
1.000045e+00
1.000135e+00
1.000225e+00
1.000317e+00
1.000411e+00
1.000506e+00
1.000603e+00
1.000702e+00
1.000802e+00
1.000903e+00
1.001005e+00
1.001105e+00
1.001202e+00
1.001294e+00
1.001380e+00
1.001456e+00
1.001521e+00
1.001573e+00
1.001609e+00
1.001629e+00
1.001631e+00
1.001615e+00
1.001582e+00
1.001534e+00
1.001471e+00
1.001397e+00
1.001312e+00
1.001220e+00
1.001123e+00
1.001023e+00
1.000921e+00
1.000819e+00
1.000717e+00
1.000616e+00
1.000517e+00
1.000420e+00
1.000325e+00
1.000231e+00
1.000138e+00
1.000046e+00
1.000043e+00
1.000129e+00
1.000216e+00
1.000304e+00
1.000393e+00
1.000484e+00
1.000576e+00
1.000671e+00
1.000766e+00
1.000862e+00
1.000958e+00
1.001052e+00
1.001143e+00
1.001230e+00
1.001311e+00
1.001382e+00
1.001443e+00
1.001491e+00
1.001525e+00
1.001543e+00
1.001545e+00
1.001531e+00
1.001500e+00
1.001455e+00
1.001396e+00
1.001326e+00
1.001247e+00
1.001161e+00
1.001069e+00
1.000975e+00
1.000878e+00
1.000781e+00
1.000685e+00
1.000589e+00
1.000495e+00
1.000402e+00
1.000311e+00
1.000221e+00
1.000132e+00
1.000044e+00
1.000041e+00
1.000123e+00
1.000205e+00
1.000288e+00
1.000373e+00
1.000459e+00
1.000546e+00
1.000635e+00
1.000724e+00
1.000814e+00
1.000904e+00
1.000992e+00
1.001077e+00
1.001158e+00
1.001232e+00
1.001299e+00
1.001355e+00
1.001399e+00
1.001431e+00
1.001447e+00
1.001449e+00
1.001435e+00
1.001407e+00
1.001365e+00
1.001311e+00
1.001247e+00
1.001173e+00
1.001093e+00
1.001008e+00
1.000920e+00
1.000829e+00
1.000738e+00
1.000648e+00
1.000558e+00
1.000469e+00
1.000381e+00
1.000295e+00
1.000210e+00
1.000125e+00
1.000042e+00
1.000038e+00
1.000115e+00
1.000193e+00
1.000271e+00
1.000350e+00
1.000431e+00
1.000512e+00
1.000595e+00
1.000678e+00
1.000762e+00
1.000845e+00
1.000926e+00
1.001005e+00
1.001079e+00
1.001147e+00
1.001208e+00
1.001259e+00
1.001300e+00
1.001328e+00
1.001343e+00
1.001345e+00
1.001332e+00
1.001307e+00
1.001269e+00
1.001219e+00
1.001160e+00
1.001093e+00
1.001019e+00
1.000941e+00
1.000859e+00
1.000776e+00
1.000691e+00
1.000607e+00
1.000523e+00
1.000440e+00
1.000358e+00
1.000277e+00
1.000197e+00
1.000118e+00
1.000039e+00
1.000036e+00
1.000107e+00
1.000179e+00
1.000252e+00
1.000326e+00
1.000400e+00
1.000476e+00
1.000552e+00
1.000629e+00
1.000706e+00
1.000782e+00
1.000856e+00
1.000928e+00
1.000995e+00
1.001057e+00
1.001112e+00
1.001158e+00
1.001195e+00
1.001220e+00
1.001234e+00
1.001235e+00
1.001224e+00
1.001201e+00
1.001167e+00
1.001122e+00
1.001068e+00
1.001007e+00
1.000941e+00
1.000869e+00
1.000795e+00
1.000718e+00
1.000641e+00
1.000563e+00
1.000485e+00
1.000409e+00
1.000333e+00
1.000258e+00
1.000183e+00
1.000110e+00
1.000037e+00
1.000033e+00
1.000099e+00
1.000165e+00
1.000232e+00
1.000300e+00
1.000368e+00
1.000437e+00
1.000507e+00
1.000577e+00
1.000647e+00
1.000716e+00
1.000783e+00
1.000847e+00
1.000908e+00
1.000964e+00
1.001013e+00
1.001054e+00
1.001087e+00
1.001109e+00
1.001121e+00
1.001123e+00
1.001113e+00
1.001092e+00
1.001061e+00
1.001021e+00
1.000974e+00
1.000919e+00
1.000859e+00
1.000795e+00
1.000727e+00
1.000658e+00
1.000588e+00
1.000517e+00
1.000446e+00
1.000376e+00
1.000306e+00
1.000237e+00
1.000169e+00
1.000101e+00
1.000034e+00
1.000030e+00
1.000090e+00
1.000151e+00
1.000211e+00
1.000273e+00
1.000335e+00
1.000397e+00
1.000460e+00
1.000523e+00
1.000586e+00
1.000648e+00
1.000708e+00
1.000765e+00
1.000819e+00
1.000868e+00
1.000912e+00
1.000948e+00
1.000977e+00
1.000997e+00
1.001008e+00
1.001009e+00
1.001000e+00
1.000982e+00
1.000955e+00
1.000919e+00
1.000877e+00
1.000829e+00
1.000775e+00
1.000718e+00
1.000658e+00
1.000596e+00
1.000533e+00
1.000469e+00
1.000405e+00
1.000341e+00
1.000278e+00
1.000216e+00
1.000154e+00
1.000092e+00
1.000031e+00
1.000027e+00
1.000081e+00
1.000135e+00
1.000190e+00
1.000245e+00
1.000300e+00
1.000356e+00
1.000412e+00
1.000468e+00
1.000524e+00
1.000578e+00
1.000631e+00
1.000682e+00
1.000729e+00
1.000772e+00
1.000810e+00
1.000842e+00
1.000867e+00
1.000885e+00
1.000894e+00
1.000895e+00
1.000887e+00
1.000871e+00
1.000848e+00
1.000817e+00
1.000780e+00
1.000738e+00
1.000691e+00
1.000640e+00
1.000587e+00
1.000532e+00
1.000476e+00
1.000420e+00
1.000363e+00
1.000306e+00
1.000250e+00
1.000194e+00
1.000138e+00
1.000083e+00
1.000028e+00
1.000024e+00
1.000072e+00
1.000120e+00
1.000168e+00
1.000216e+00
1.000265e+00
1.000314e+00
1.000364e+00
1.000413e+00
1.000461e+00
1.000509e+00
1.000555e+00
1.000599e+00
1.000640e+00
1.000677e+00
1.000710e+00
1.000737e+00
1.000759e+00
1.000774e+00
1.000781e+00
1.000782e+00
1.000776e+00
1.000762e+00
1.000742e+00
1.000715e+00
1.000683e+00
1.000647e+00
1.000606e+00
1.000562e+00
1.000516e+00
1.000469e+00
1.000420e+00
1.000370e+00
1.000320e+00
1.000270e+00
1.000221e+00
1.000171e+00
1.000122e+00
1.000073e+00
1.000024e+00
1.000021e+00
1.000062e+00
1.000104e+00
1.000146e+00
1.000188e+00
1.000230e+00
1.000272e+00
1.000315e+00
1.000357e+00
1.000399e+00
1.000439e+00
1.000479e+00
1.000516e+00
1.000551e+00
1.000582e+00
1.000610e+00
1.000633e+00
1.000652e+00
1.000664e+00
1.000671e+00
1.000671e+00
1.000666e+00
1.000654e+00
1.000637e+00
1.000615e+00
1.000588e+00
1.000557e+00
1.000522e+00
1.000485e+00
1.000446e+00
1.000405e+00
1.000363e+00
1.000320e+00
1.000277e+00
1.000234e+00
1.000191e+00
1.000148e+00
1.000106e+00
1.000063e+00
1.000021e+00
1.000018e+00
1.000053e+00
1.000088e+00
1.000123e+00
1.000159e+00
1.000194e+00
1.000230e+00
1.000266e+00
1.000301e+00
1.000336e+00
1.000370e+00
1.000403e+00
1.000434e+00
1.000463e+00
1.000489e+00
1.000512e+00
1.000531e+00
1.000546e+00
1.000557e+00
1.000562e+00
1.000563e+00
1.000558e+00
1.000549e+00
1.000535e+00
1.000516e+00
1.000494e+00
1.000468e+00
1.000439e+00
1.000408e+00
1.000375e+00
1.000341e+00
1.000306e+00
1.000270e+00
1.000234e+00
1.000198e+00
1.000162e+00
1.000126e+00
1.000090e+00
1.000054e+00
1.000018e+00
1.000014e+00
1.000043e+00
1.000072e+00
1.000101e+00
1.000130e+00
1.000159e+00
1.000188e+00
1.000217e+00
1.000246e+00
1.000274e+00
1.000302e+00
1.000328e+00
1.000353e+00
1.000377e+00
1.000398e+00
1.000416e+00
1.000432e+00
1.000444e+00
1.000452e+00
1.000456e+00
1.000457e+00
1.000453e+00
1.000445e+00
1.000434e+00
1.000419e+00
1.000401e+00
1.000380e+00
1.000357e+00
1.000332e+00
1.000306e+00
1.000278e+00
1.000250e+00
1.000221e+00
1.000191e+00
1.000162e+00
1.000132e+00
1.000103e+00
1.000073e+00
1.000044e+00
1.000015e+00
1.000011e+00
1.000034e+00
1.000056e+00
1.000078e+00
1.000101e+00
1.000123e+00
1.000146e+00
1.000168e+00
1.000191e+00
1.000212e+00
1.000234e+00
1.000254e+00
1.000273e+00
1.000291e+00
1.000307e+00
1.000322e+00
1.000333e+00
1.000343e+00
1.000349e+00
1.000352e+00
1.000353e+00
1.000350e+00
1.000344e+00
1.000335e+00
1.000324e+00
1.000310e+00
1.000294e+00
1.000277e+00
1.000257e+00
1.000237e+00
1.000216e+00
1.000194e+00
1.000171e+00
1.000148e+00
1.000126e+00
1.000103e+00
1.000080e+00
1.000057e+00
1.000034e+00
1.000011e+00
1.000008e+00
1.000024e+00
1.000040e+00
1.000056e+00
1.000072e+00
1.000088e+00
1.000104e+00
1.000120e+00
1.000136e+00
1.000151e+00
1.000166e+00
1.000181e+00
1.000195e+00
1.000207e+00
1.000219e+00
1.000229e+00
1.000237e+00
1.000243e+00
1.000248e+00
1.000250e+00
1.000250e+00
1.000248e+00
1.000244e+00
1.000238e+00
1.000230e+00
1.000220e+00
1.000209e+00
1.000197e+00
1.000183e+00
1.000169e+00
1.000154e+00
1.000138e+00
1.000122e+00
1.000106e+00
1.000090e+00
1.000073e+00
1.000057e+00
1.000041e+00
1.000024e+00
1.000008e+00
1.000005e+00
1.000014e+00
1.000024e+00
1.000034e+00
1.000043e+00
1.000053e+00
1.000062e+00
1.000072e+00
1.000081e+00
1.000091e+00
1.000100e+00
1.000108e+00